  TITLE = 'RIGID WAKE OF ROTOR'
  VARIABLES = 'X','Y','Z'
  ZONE I = 36	F = POINT
	0.381	-0.0	-0.0
	0.4204900806492446	-0.06615995569110046	-0.0006406453038197711
	0.44857954202261774	-0.1303096746070798	-0.0012812906076395422
	0.46579065909665107	-0.19049999999999997	-0.0019219359114593135
	0.47297623983470394	-0.24490207929057145	-0.0025625812152790845
	0.47129371304853807	-0.29186293282833065	-0.003203226519098856
	0.46216996050955994	-0.3299556788418711	-0.003843871822918627
	0.447257961868233	-0.3580228885194311	-0.004484517126738398
	0.42838656970384703	-0.37521175389765127	-0.005125162430558169
	0.40750494076433985	-0.381	-0.005765807734377941
	0.3866233118248327	-0.37521175389765127	-0.006406453038197712
	0.36775191966044674	-0.3580228885194311	-0.007047098342017483
	0.3528399210191199	-0.32995567884187116	-0.007687743645837254
	0.34371616848014164	-0.29186293282833065	-0.008328388949657026
	0.3420336416939758	-0.24490207929057153	-0.008969034253476796
	0.34921922243202863	-0.19049999999999997	-0.009609679557296568
	0.36643033950606196	-0.13030967460707985	-0.010250324861116338
	0.39451980087943506	-0.0661599556911006	-0.01089097016493611
	0.4340098815286797	-4.665904304751416e-17	-0.011531615468755882
	0.48507645438262165	0.06615995569110034	-0.012172260772575652
	0.5475436465124353	0.13030967460707976	-0.012812906076395424
	0.6208891829415883	0.1904999999999999	-0.013453551380215194
	0.7042602557067223	0.24490207929057145	-0.014094196684034966
	0.7964994359960748	0.2918629328283306	-0.014734841987854738
	0.8961798420382394	0.32995567884187105	-0.015375487291674508
	1.0016484941827528	0.35802288851943104	-0.016016132595494278
	1.1110765398503257	0.37521175389765127	-0.01665677789931405
	1.2225148222930196	0.381	-0.01729742320313382
	1.3339531047357132	0.3752117538976513	-0.01793806850695359
	1.4433811504032856	0.35802288851943115	-0.018578713810773362
	1.5488498025477997	0.3299556788418711	-0.019219359114593135
	1.6485302085899642	0.29186293282833065	-0.019860004418412906
	1.7407693888793165	0.2449020792905716	-0.020500649722232676
	1.8241404616444505	0.19050000000000017	-0.02114129502605245
	1.8974859980736036	0.13030967460708007	-0.02178194032987222
	1.9599531902034175	0.06615995569110047	-0.022422585633691993
  VARIABLES = 'X','Y','Z'
  ZONE I = 36	F = POINT
	0.635	-0.0	-0.0
	0.6706312499143454	-0.11026659281850076	-0.0006406453038197711
	0.6872614677022385	-0.21718279101179963	-0.0012812906076395422
	0.6857611116578985	-0.31749999999999995	-0.0019219359114593135
	0.6675515283869243	-0.40817013215095244	-0.0025625812152790845
	0.6345617659089191	-0.48643822138055104	-0.003203226519098856
	0.5891699605095599	-0.5499261314031185	-0.003843871822918627
	0.5341310782729529	-0.5967048141990517	-0.004484517126738398
	0.47249320683124735	-0.6253529231627522	-0.005125162430558169
	0.4075049407643399	-0.635	-0.005765807734377941
	0.3425166746974324	-0.6253529231627522	-0.006406453038197712
	0.2808788032557269	-0.5967048141990519	-0.007047098342017483
	0.22583992101911993	-0.5499261314031186	-0.007687743645837254
	0.18044811561976065	-0.48643822138055104	-0.008328388949657026
	0.14745835314175543	-0.40817013215095255	-0.008969034253476796
	0.12924876987078115	-0.31749999999999995	-0.009609679557296568
	0.1277484138264413	-0.21718279101179974	-0.010250324861116338
	0.14437863161433417	-0.11026659281850101	-0.01089097016493611
	0.1800098815286797	-7.776507174585693e-17	-0.011531615468755882
	0.23493528511752082	0.11026659281850057	-0.012172260772575652
	0.3088617208328145	0.2171827910117996	-0.012812906076395424
	0.400918730380341	0.31749999999999984	-0.013453551380215194
	0.5096849671545018	0.40817013215095244	-0.014094196684034966
	0.6332313831356937	0.486438221380551	-0.014734841987854738
	0.7691798420382392	0.5499261314031184	-0.015375487291674508
	0.9147753777780327	0.5967048141990517	-0.016016132595494278
	1.0669699027229256	0.6253529231627522	-0.01665677789931405
	1.2225148222930193	0.635	-0.01729742320313382
	1.3780597418631133	0.6253529231627522	-0.01793806850695359
	1.5302542668080052	0.596704814199052	-0.018578713810773362
	1.6758498025477997	0.5499261314031185	-0.019219359114593135
	1.8117982614503454	0.4864382213805511	-0.019860004418412906
	1.935344677431537	0.40817013215095266	-0.020500649722232676
	2.0441109142056977	0.3175000000000003	-0.02114129502605245
	2.1361679237532245	0.2171827910118001	-0.02178194032987222
	2.2100943594685183	0.11026659281850079	-0.022422585633691993
  VARIABLES = 'X','Y','Z'
  ZONE I = 36	F = POINT
	0.889	-0.0	-0.0
	0.9207724191794462	-0.15437322994590108	-0.0006406453038197711
	0.9259433933818593	-0.3040559074165195	-0.0012812906076395422
	0.9057315642191459	-0.44449999999999995	-0.0019219359114593135
	0.8621268169391447	-0.5714381850113334	-0.0025625812152790845
	0.7978298187693	-0.6810135099327714	-0.003203226519098856
	0.7161699605095599	-0.7698965839643659	-0.003843871822918627
	0.6210041946776728	-0.8353867398786725	-0.004484517126738398
	0.5165998439586477	-0.8754940924278529	-0.005125162430558169
	0.4075049407643399	-0.889	-0.005765807734377941
	0.29841003757003215	-0.8754940924278529	-0.006406453038197712
	0.194005686851007	-0.8353867398786726	-0.007047098342017483
	0.09883992101911998	-0.769896583964366	-0.007687743645837254
	0.017180062759379666	-0.6810135099327714	-0.008328388949657026
	-0.04711693541046491	-0.5714381850113336	-0.008969034253476796
	-0.09072168269046621	-0.44449999999999995	-0.009609679557296568
	-0.11093351185317946	-0.3040559074165196	-0.010250324861116338
	-0.1057625376507666	-0.1543732299459014	-0.01089097016493611
	-0.07399011847132031	-1.088711004441997e-16	-0.011531615468755882
	-0.015205884147580062	0.1543732299459008	-0.012172260772575652
	0.07017979515319372	0.30405590741651944	-0.012812906076395424
	0.1809482778190935	0.4444999999999998	-0.013453551380215194
	0.31510967860228145	0.5714381850113334	-0.014094196684034966
	0.4699633302753127	0.6810135099327713	-0.014734841987854738
	0.6421798420382392	0.7698965839643658	-0.015375487291674508
	0.8279022613733127	0.8353867398786724	-0.016016132595494278
	1.0228632655955252	0.8754940924278529	-0.01665677789931405
	1.2225148222930193	0.889	-0.01729742320313382
	1.4221663789905135	0.875494092427853	-0.01793806850695359
	1.617127383212725	0.8353867398786727	-0.018578713810773362
	1.8028498025477997	0.7698965839643659	-0.019219359114593135
	1.9750663143107263	0.6810135099327715	-0.019860004418412906
	2.1299199659837575	0.5714381850113337	-0.020500649722232676
	2.2640813667669453	0.4445000000000004	-0.02114129502605245
	2.374849849432845	0.3040559074165201	-0.02178194032987222
	2.460235528733619	0.1543732299459011	-0.022422585633691993
  VARIABLES = 'X','Y','Z'
  ZONE I = 36	F = POINT
	1.143	-0.0	-0.0
	1.170913588444547	-0.19847986707330137	-0.0006406453038197711
	1.16462531906148	-0.39092902382123934	-0.0012812906076395422
	1.1257020167803935	-0.5714999999999999	-0.0019219359114593135
	1.0567021054913652	-0.7347062378717144	-0.0025625812152790845
	0.9610978716296811	-0.8755887984849919	-0.003203226519098856
	0.84316996050956	-0.9898670365256134	-0.003843871822918627
	0.7078773110823926	-1.0740686655582932	-0.004484517126738398
	0.560706481086048	-1.1256352616929537	-0.005125162430558169
	0.4075049407643399	-1.143	-0.005765807734377941
	0.25430340044263183	-1.1256352616929537	-0.006406453038197712
	0.10713257044628716	-1.0740686655582934	-0.007047098342017483
	-0.02816007898088002	-0.9898670365256135	-0.007687743645837254
	-0.14608799010100137	-0.8755887984849919	-0.008328388949657026
	-0.2416922239626853	-0.7347062378717146	-0.008969034253476796
	-0.3106921352517137	-0.5714999999999999	-0.009609679557296568
	-0.3496154375328001	-0.3909290238212395	-0.010250324861116338
	-0.35590370691586737	-0.1984798670733018	-0.01089097016493611
	-0.3279901184713203	-1.3997712914254247e-16	-0.011531615468755882
	-0.26534705341268094	0.19847986707330104	-0.012172260772575652
	-0.16850213052642704	0.3909290238212393	-0.012812906076395424
	-0.03902217474215397	0.5714999999999997	-0.013453551380215194
	0.12053439005006095	0.7347062378717144	-0.014094196684034966
	0.30669527741493163	0.8755887984849917	-0.014734841987854738
	0.515179842038239	0.9898670365256133	-0.015375487291674508
	0.7410291449685926	1.0740686655582932	-0.016016132595494278
	0.978756628468125	1.1256352616929537	-0.01665677789931405
	1.2225148222930193	1.143	-0.01729742320313382
	1.4662730161179138	1.125635261692954	-0.01793806850695359
	1.704000499617445	1.0740686655582934	-0.018578713810773362
	1.9298498025477997	0.9898670365256134	-0.019219359114593135
	2.1383343671711073	0.875588798484992	-0.019860004418412906
	2.324495254535978	0.7347062378717147	-0.020500649722232676
	2.4840518193281924	0.5715000000000006	-0.02114129502605245
	2.613531775112466	0.3909290238212402	-0.02178194032987222
	2.71037669799872	0.19847986707330142	-0.022422585633691993
  VARIABLES = 'X','Y','Z'
  ZONE I = 36	F = POINT
	1.397	-0.0	-0.0
	1.421054757709648	-0.24258650420070169	-0.0006406453038197711
	1.4033072447411006	-0.4778021402259592	-0.0012812906076395422
	1.3456724693416409	-0.6984999999999999	-0.0019219359114593135
	1.2512773940435855	-0.8979742907320953	-0.0025625812152790845
	1.1243659244900621	-1.0701640870372122	-0.003203226519098856
	0.97016996050956	-1.2098374890868608	-0.003843871822918627
	0.7947504274871126	-1.312750591237914	-0.004484517126738398
	0.6048131182134483	-1.3757764309580547	-0.005125162430558169
	0.40750494076433996	-1.397	-0.005765807734377941
	0.21019676331523154	-1.3757764309580547	-0.006406453038197712
	0.020259454041567315	-1.312750591237914	-0.007047098342017483
	-0.1551600789808799	-1.2098374890868608	-0.007687743645837254
	-0.3093560429613823	-1.0701640870372122	-0.008328388949657026
	-0.4362675125149058	-0.8979742907320957	-0.008969034253476796
	-0.530662587812961	-0.6984999999999999	-0.009609679557296568
	-0.588297363212421	-0.4778021402259594	-0.010250324861116338
	-0.6060448761809684	-0.2425865042007022	-0.01089097016493611
	-0.5819901184713203	-1.7108315784088525e-16	-0.011531615468755882
	-0.5154882226777817	0.24258650420070124	-0.012172260772575652
	-0.4071840562060477	0.4778021402259591	-0.012812906076395424
	-0.25899262730340145	0.6984999999999997	-0.013453551380215194
	-0.07404089850215945	0.8979742907320953	-0.014094196684034966
	0.1434272245545506	1.0701640870372122	-0.014734841987854738
	0.38817984203823885	1.2098374890868606	-0.015375487291674508
	0.6541560285638727	1.3127505912379138	-0.016016132595494278
	0.9346499913407246	1.3757764309580547	-0.01665677789931405
	1.2225148222930193	1.397	-0.01729742320313382
	1.510379653245314	1.3757764309580547	-0.01793806850695359
	1.7908736160221645	1.3127505912379143	-0.018578713810773362
	2.0568498025477995	1.2098374890868608	-0.019219359114593135
	2.301602420031488	1.0701640870372124	-0.019860004418412906
	2.519070543088198	0.8979742907320958	-0.020500649722232676
	2.70402227188944	0.6985000000000007	-0.02114129502605245
	2.8522137007920865	0.4778021402259602	-0.02178194032987222
	2.960517867263821	0.24258650420070174	-0.022422585633691993
  VARIABLES = 'X','Y','Z'
  ZONE I = 36	F = POINT
	1.651	-0.0	-0.0
	1.6711959269747487	-0.286693141328102	-0.0006406453038197711
	1.6419891704207215	-0.5646752566306791	-0.0012812906076395422
	1.5656429219028885	-0.8254999999999999	-0.0019219359114593135
	1.445852682595806	-1.0612423435924763	-0.0025625812152790845
	1.287633977350443	-1.2647393755894327	-0.003203226519098856
	1.0971699605095602	-1.4298079416481082	-0.003843871822918627
	0.8816235438918324	-1.5514325169175347	-0.004484517126738398
	0.6489197553408487	-1.6259176002231555	-0.005125162430558169
	0.40750494076433996	-1.651	-0.005765807734377941
	0.16609012618783126	-1.6259176002231555	-0.006406453038197712
	-0.06661366236315258	-1.551432516917535	-0.007047098342017483
	-0.2821600789808799	-1.4298079416481084	-0.007687743645837254
	-0.47262409582176335	-1.2647393755894327	-0.008328388949657026
	-0.6308428010671261	-1.0612423435924767	-0.008969034253476796
	-0.7506330403742086	-0.8254999999999999	-0.009609679557296568
	-0.8269792888920416	-0.5646752566306793	-0.010250324861116338
	-0.8561860454460691	-0.28669314132810264	-0.01089097016493611
	-0.8359901184713203	-2.0218918653922802e-16	-0.011531615468755882
	-0.7656293919428827	0.2866931413281015	-0.012172260772575652
	-0.6458659818856686	0.564675256630679	-0.012812906076395424
	-0.4789630798646488	0.8254999999999996	-0.013453551380215194
	-0.26861618705437995	1.0612423435924763	-0.014094196684034966
	-0.01984082830583045	1.2647393755894325	-0.014734841987854738
	0.26117984203823874	1.429807941648108	-0.015375487291674508
	0.5672829121591526	1.5514325169175345	-0.016016132595494278
	0.8905433542133243	1.6259176002231555	-0.01665677789931405
	1.2225148222930193	1.651	-0.01729742320313382
	1.5544862903727141	1.6259176002231557	-0.01793806850695359
	1.8777467324268842	1.551432516917535	-0.018578713810773362
	2.1838498025477997	1.4298079416481082	-0.019219359114593135
	2.464870472891869	1.264739375589433	-0.019860004418412906
	2.7136458316404184	1.061242343592477	-0.020500649722232676
	2.923992724450687	0.8255000000000008	-0.02114129502605245
	3.090895626471707	0.5646752566306802	-0.02178194032987222
	3.210659036528922	0.2866931413281021	-0.022422585633691993
  VARIABLES = 'X','Y','Z'
  ZONE I = 36	F = POINT
	1.905	-0.0	-0.0
	1.9213370962398495	-0.3307997784555023	-0.0006406453038197711
	1.880671096100342	-0.6515483730353989	-0.0012812906076395422
	1.7856133744641358	-0.9524999999999999	-0.0019219359114593135
	1.6404279711480265	-1.2245103964528572	-0.0025625812152790845
	1.450902030210824	-1.4593146641416532	-0.003203226519098856
	1.2241699605095602	-1.6497783942093556	-0.003843871822918627
	0.9684966602965523	-1.7901144425971554	-0.004484517126738398
	0.6930263924682489	-1.8760587694882562	-0.005125162430558169
	0.40750494076433996	-1.905	-0.005765807734377941
	0.12198348906043094	-1.8760587694882562	-0.006406453038197712
	-0.15348677876787242	-1.7901144425971556	-0.007047098342017483
	-0.4091600789808798	-1.6497783942093558	-0.007687743645837254
	-0.6358921486821443	-1.4593146641416532	-0.008328388949657026
	-0.8254180896193466	-1.2245103964528576	-0.008969034253476796
	-0.970603492935456	-0.9524999999999999	-0.009609679557296568
	-1.0656612145716622	-0.6515483730353993	-0.010250324861116338
	-1.10632721471117	-0.330799778455503	-0.01089097016493611
	-1.0899901184713203	-2.3329521523757077e-16	-0.011531615468755882
	-1.0157705612079835	0.3307997784555017	-0.012172260772575652
	-0.8845479075652892	0.6515483730353988	-0.012812906076395424
	-0.6989335324258964	0.9524999999999995	-0.013453551380215194
	-0.46319147560660046	1.2245103964528572	-0.014094196684034966
	-0.18310888116621138	1.459314664141653	-0.014734841987854738
	0.13417984203823863	1.6497783942093553	-0.015375487291674508
	0.48040979575443266	1.7901144425971551	-0.016016132595494278
	0.8464367170859239	1.8760587694882562	-0.01665677789931405
	1.222514822293019	1.905	-0.01729742320313382
	1.5985929275001145	1.8760587694882565	-0.01793806850695359
	1.964619848831604	1.7901144425971558	-0.018578713810773362
	2.3108498025478	1.6497783942093556	-0.019219359114593135
	2.62813852575225	1.4593146641416535	-0.019860004418412906
	2.908221120192639	1.2245103964528579	-0.020500649722232676
	3.1439631770119343	0.9525000000000009	-0.02114129502605245
	3.329577552151328	0.6515483730354003	-0.02178194032987222
	3.4608002057940226	0.3307997784555024	-0.022422585633691993
  VARIABLES = 'X','Y','Z'
  ZONE I = 36	F = POINT
	2.159	-0.0	-0.0
	2.1714782655049505	-0.37490641558290255	-0.0006406453038197711
	2.1193530217799625	-0.7384214894401187	-0.0012812906076395422
	2.005583827025383	-1.0794999999999997	-0.0019219359114593135
	1.8350032597002466	-1.3877784493132381	-0.0025625812152790845
	1.614170083071205	-1.6538899526938733	-0.003203226519098856
	1.35116996050956	-1.8697488467706027	-0.003843871822918627
	1.055369776701272	-2.028796368276776	-0.004484517126738398
	0.7371330295956493	-2.126199938753357	-0.005125162430558169
	0.40750494076433996	-2.159	-0.005765807734377941
	0.07787685193303068	-2.126199938753357	-0.006406453038197712
	-0.24035989517259215	-2.028796368276776	-0.007047098342017483
	-0.5361600789808797	-1.869748846770603	-0.007687743645837254
	-0.7991602015425252	-1.6538899526938733	-0.008328388949657026
	-1.0199933781715667	-1.3877784493132386	-0.008969034253476796
	-1.1905739454967033	-1.0794999999999997	-0.009609679557296568
	-1.3043431402512828	-0.7384214894401191	-0.010250324861116338
	-1.3564683839762708	-0.3749064155829034	-0.01089097016493611
	-1.34399011847132	-2.6440124393591355e-16	-0.011531615468755882
	-1.265911730473084	0.3749064155829019	-0.012172260772575652
	-1.1232298332449098	0.7384214894401185	-0.012812906076395424
	-0.9189039849871435	1.0794999999999992	-0.013453551380215194
	-0.6577667641588207	1.3877784493132381	-0.014094196684034966
	-0.3463769340265923	1.653889952693873	-0.014734841987854738
	0.007179842038238737	1.8697488467706025	-0.015375487291674508
	0.3935366793497127	2.0287963682767756	-0.016016132595494278
	0.8023300799585238	2.126199938753357	-0.01665677789931405
	1.222514822293019	2.159	-0.01729742320313382
	1.6426995646275147	2.126199938753357	-0.01793806850695359
	2.0514929652363234	2.0287963682767765	-0.018578713810773362
	2.4378498025477997	1.8697488467706027	-0.019219359114593135
	2.791406578612631	1.6538899526938737	-0.019860004418412906
	3.102796408744859	1.3877784493132388	-0.020500649722232676
	3.3639336295731814	1.0795000000000008	-0.02114129502605245
	3.5682594778309484	0.7384214894401202	-0.02178194032987222
	3.7109413750591234	0.37490641558290266	-0.022422585633691993
  VARIABLES = 'X','Y','Z'
  ZONE I = 36	F = POINT
	2.4130000000000003	-0.0	-0.0
	2.4216194347700517	-0.4190130527103029	-0.0006406453038197711
	2.3580349474595836	-0.8252946058448387	-0.0012812906076395422
	2.225554279586631	-1.2065	-0.0019219359114593135
	2.0295785482524673	-1.5510465021736193	-0.0025625812152790845
	1.7774381359315863	-1.8484652412460942	-0.003203226519098856
	1.4781699605095602	-2.0897192993318505	-0.003843871822918627
	1.1422428931059923	-2.267478293956397	-0.004484517126738398
	0.7812396667230497	-2.376341108018458	-0.005125162430558169
	0.40750494076434	-2.4130000000000003	-0.005765807734377941
	0.033770214805630305	-2.376341108018458	-0.006406453038197712
	-0.3272330115773122	-2.267478293956397	-0.007047098342017483
	-0.6631600789808799	-2.089719299331851	-0.007687743645837254
	-0.9624282544029066	-1.8484652412460942	-0.008328388949657026
	-1.2145686667237874	-1.55104650217362	-0.008969034253476796
	-1.4105443980579513	-1.2065	-0.009609679557296568
	-1.543025065930904	-0.825294605844839	-0.010250324861116338
	-1.606609553241372	-0.41901305271030387	-0.01089097016493611
	-1.5979901184713206	-2.955072726342564e-16	-0.011531615468755882
	-1.5160528997381857	0.4190130527103022	-0.012172260772575652
	-1.3619117589245309	0.8252946058448386	-0.012812906076395424
	-1.1388744375483912	1.2064999999999995	-0.013453551380215194
	-0.8523420527110415	1.5510465021736193	-0.014094196684034966
	-0.5096449868869737	1.8484652412460938	-0.014734841987854738
	-0.11982015796176171	2.08971929933185	-0.015375487291674508
	0.30666356294499253	2.2674782939563967	-0.016016132595494278
	0.7582234428311234	2.376341108018458	-0.01665677789931405
	1.222514822293019	2.4130000000000003	-0.01729742320313382
	1.6868062017549148	2.3763411080184587	-0.01793806850695359
	2.1383660816410437	2.2674782939563976	-0.018578713810773362
	2.5648498025478	2.0897192993318505	-0.019219359114593135
	2.9546746314730123	1.8484652412460945	-0.019860004418412906
	3.2973716972970797	1.5510465021736202	-0.020500649722232676
	3.5839040821344295	1.2065000000000012	-0.02114129502605245
	3.806941403510569	0.8252946058448404	-0.02178194032987222
	3.961082544324224	0.4190130527103031	-0.022422585633691993
  VARIABLES = 'X','Y','Z'
  ZONE I = 36	F = POINT
	2.667	-0.0	-0.0
	2.671760604035152	-0.4631196898377032	-0.0006406453038197711
	2.5967168731392043	-0.9121677222495584	-0.0012812906076395422
	2.4455247321478777	-1.3334999999999997	-0.0019219359114593135
	2.224153836804687	-1.714314555034	-0.0025625812152790845
	1.940706188791967	-2.043040529798314	-0.003203226519098856
	1.60516996050956	-2.3096897518930977	-0.003843871822918627
	1.2291160095107119	-2.5061602196360173	-0.004484517126738398
	0.8253463038504499	-2.6264822772835585	-0.005125162430558169
	0.40750494076434	-2.667	-0.005765807734377941
	-0.0103364223217699	-2.6264822772835585	-0.006406453038197712
	-0.41410612798203195	-2.5061602196360178	-0.007047098342017483
	-0.7901600789808795	-2.3096897518930977	-0.007687743645837254
	-1.1256963072632873	-2.043040529798314	-0.008328388949657026
	-1.4091439552760077	-1.7143145550340007	-0.008969034253476796
	-1.630514850619198	-1.3334999999999997	-0.009609679557296568
	-1.7817069916105241	-0.9121677222495589	-0.010250324861116338
	-1.8567507225064723	-0.4631196898377042	-0.01089097016493611
	-1.8519901184713201	-3.2661330133259906e-16	-0.011531615468755882
	-1.766194069003286	0.46311968983770235	-0.012172260772575652
	-1.6005936846041515	0.9121677222495582	-0.012812906076395424
	-1.3588448901096384	1.3334999999999992	-0.013453551380215194
	-1.0469173412632615	1.714314555034	-0.014094196684034966
	-0.6729130397473544	2.043040529798314	-0.014734841987854738
	-0.2468201579617615	2.309689751893097	-0.015375487291674508
	0.21979044654027258	2.506160219636017	-0.016016132595494278
	0.714116805703723	2.6264822772835585	-0.01665677789931405
	1.222514822293019	2.667	-0.01729742320313382
	1.730912838882315	2.626482277283559	-0.01793806850695359
	2.225239198045763	2.5061602196360178	-0.018578713810773362
	2.6918498025477997	2.3096897518930977	-0.019219359114593135
	3.117942684333393	2.0430405297983145	-0.019860004418412906
	3.4919469858492995	1.7143145550340009	-0.020500649722232676
	3.803874534695676	1.333500000000001	-0.02114129502605245
	4.04562332919019	0.9121677222495603	-0.02178194032987222
	4.211223713589325	0.4631196898377033	-0.022422585633691993
  VARIABLES = 'X','Y','Z'
  ZONE I = 36	F = POINT
	0.3528399210191199	-0.32995567884187116	-0.0
	0.34371616848014164	-0.29186293282833076	-0.0006406453038197711
	0.3420336416939758	-0.24490207929057153	-0.0012812906076395422
	0.34921922243202863	-0.19050000000000014	-0.0019219359114593135
	0.36643033950606196	-0.13030967460707985	-0.0025625812152790845
	0.39451980087943506	-0.0661599556911006	-0.003203226519098856
	0.4340098815286797	-4.665904304751416e-17	-0.003843871822918627
	0.48507645438262165	0.06615995569110034	-0.004484517126738398
	0.547543646512435	0.1303096746070796	-0.005125162430558169
	0.6208891829415883	0.1904999999999999	-0.005765807734377941
	0.7042602557067223	0.24490207929057145	-0.006406453038197712
	0.7964994359960748	0.2918629328283306	-0.007047098342017483
	0.8961798420382394	0.32995567884187105	-0.007687743645837254
	1.0016484941827533	0.3580228885194311	-0.008328388949657026
	1.1110765398503257	0.37521175389765127	-0.008969034253476796
	1.2225148222930196	0.381	-0.009609679557296568
	1.3339531047357132	0.3752117538976513	-0.010250324861116338
	1.4433811504032856	0.35802288851943115	-0.01089097016493611
	1.548849802547799	0.32995567884187127	-0.011531615468755882
	1.6485302085899638	0.29186293282833087	-0.012172260772575652
	1.7407693888793165	0.2449020792905716	-0.012812906076395424
	1.8241404616444505	0.19050000000000017	-0.013453551380215194
	1.8974859980736039	0.13030967460707973	-0.014094196684034966
	1.9599531902034175	0.06615995569110047	-0.014734841987854738
	2.0110197630573596	9.331808609502832e-17	-0.015375487291674508
	2.050509843706604	-0.0661599556911003	-0.016016132595494278
	2.078599305079977	-0.13030967460707954	-0.01665677789931405
	2.0958104221540106	-0.19049999999999973	-0.01729742320313382
	2.1029960028920636	-0.24490207929057117	-0.01793806850695359
	2.1013134761058976	-0.2918629328283303	-0.018578713810773362
	2.0921897235669196	-0.3299556788418712	-0.019219359114593135
	2.0772777249255925	-0.3580228885194311	-0.019860004418412906
	2.0584063327612063	-0.37521175389765127	-0.020500649722232676
	2.037524703821699	-0.381	-0.02114129502605245
	2.016643074882192	-0.3752117538976513	-0.02178194032987222
	1.997771682717806	-0.3580228885194312	-0.022422585633691993
  VARIABLES = 'X','Y','Z'
  ZONE I = 36	F = POINT
	0.22583992101911993	-0.5499261314031186	-0.0
	0.18044811561976076	-0.48643822138055126	-0.0006406453038197711
	0.14745835314175543	-0.40817013215095255	-0.0012812906076395422
	0.12924876987078127	-0.3175000000000002	-0.0019219359114593135
	0.1277484138264413	-0.21718279101179974	-0.0025625812152790845
	0.14437863161433417	-0.11026659281850101	-0.003203226519098856
	0.1800098815286797	-7.776507174585693e-17	-0.003843871822918627
	0.23493528511752082	0.11026659281850057	-0.004484517126738398
	0.30886172083281427	0.21718279101179933	-0.005125162430558169
	0.400918730380341	0.31749999999999984	-0.005765807734377941
	0.5096849671545018	0.40817013215095244	-0.006406453038197712
	0.6332313831356937	0.486438221380551	-0.007047098342017483
	0.7691798420382392	0.5499261314031184	-0.007687743645837254
	0.9147753777780335	0.5967048141990519	-0.008328388949657026
	1.0669699027229256	0.6253529231627522	-0.008969034253476796
	1.2225148222930193	0.635	-0.009609679557296568
	1.3780597418631133	0.6253529231627522	-0.010250324861116338
	1.5302542668080052	0.596704814199052	-0.01089097016493611
	1.6758498025477988	0.5499261314031187	-0.011531615468755882
	1.8117982614503445	0.4864382213805515	-0.012172260772575652
	1.935344677431537	0.40817013215095266	-0.012812906076395424
	2.0441109142056977	0.3175000000000003	-0.013453551380215194
	2.1361679237532245	0.21718279101179958	-0.014094196684034966
	2.2100943594685183	0.11026659281850079	-0.014734841987854738
	2.265019763057359	1.5553014349171386e-16	-0.015375487291674508
	2.300651012971705	-0.1102665928185005	-0.016016132595494278
	2.317281230759598	-0.21718279101179924	-0.01665677789931405
	2.3157808747152577	-0.31749999999999956	-0.01729742320313382
	2.297571291444284	-0.40817013215095194	-0.01793806850695359
	2.264581528966279	-0.48643822138055054	-0.018578713810773362
	2.2191897235669193	-0.5499261314031186	-0.019219359114593135
	2.1641508413303123	-0.5967048141990519	-0.019860004418412906
	2.1025129698886067	-0.6253529231627522	-0.020500649722232676
	2.037524703821699	-0.635	-0.02114129502605245
	1.972536437754792	-0.6253529231627522	-0.02178194032987222
	1.9108985663130864	-0.596704814199052	-0.022422585633691993
  VARIABLES = 'X','Y','Z'
  ZONE I = 36	F = POINT
	0.09883992101911998	-0.769896583964366	-0.0
	0.017180062759379777	-0.6810135099327718	-0.0006406453038197711
	-0.04711693541046491	-0.5714381850113336	-0.0012812906076395422
	-0.0907216826904661	-0.4445000000000003	-0.0019219359114593135
	-0.11093351185317946	-0.3040559074165196	-0.0025625812152790845
	-0.1057625376507666	-0.1543732299459014	-0.003203226519098856
	-0.07399011847132031	-1.088711004441997e-16	-0.003843871822918627
	-0.015205884147580062	0.1543732299459008	-0.004484517126738398
	0.0701797951531935	0.30405590741651906	-0.005125162430558169
	0.1809482778190935	0.4444999999999998	-0.005765807734377941
	0.31510967860228145	0.5714381850113334	-0.006406453038197712
	0.4699633302753127	0.6810135099327713	-0.007047098342017483
	0.6421798420382392	0.7698965839643658	-0.007687743645837254
	0.8279022613733137	0.8353867398786726	-0.008328388949657026
	1.0228632655955252	0.8754940924278529	-0.008969034253476796
	1.2225148222930193	0.889	-0.009609679557296568
	1.4221663789905135	0.875494092427853	-0.010250324861116338
	1.617127383212725	0.8353867398786727	-0.01089097016493611
	1.8028498025477988	0.7698965839643663	-0.011531615468755882
	1.9750663143107254	0.6810135099327721	-0.012172260772575652
	2.1299199659837575	0.5714381850113337	-0.012812906076395424
	2.2640813667669453	0.4445000000000004	-0.013453551380215194
	2.3748498494328456	0.3040559074165194	-0.014094196684034966
	2.460235528733619	0.1543732299459011	-0.014734841987854738
	2.5190197630573596	2.177422008883994e-16	-0.015375487291674508
	2.5507921822368056	-0.1543732299459007	-0.016016132595494278
	2.5559631564392187	-0.30405590741651894	-0.01665677789931405
	2.5357513272765058	-0.44449999999999934	-0.01729742320313382
	2.4921465799965046	-0.5714381850113327	-0.01793806850695359
	2.42784958182666	-0.6810135099327708	-0.018578713810773362
	2.346189723566919	-0.7698965839643661	-0.019219359114593135
	2.251023957735032	-0.8353867398786726	-0.019860004418412906
	2.146619607016007	-0.8754940924278529	-0.020500649722232676
	2.0375247038216995	-0.889	-0.02114129502605245
	1.9284298006273919	-0.875494092427853	-0.02178194032987222
	1.8240254499083668	-0.8353867398786728	-0.022422585633691993
  VARIABLES = 'X','Y','Z'
  ZONE I = 36	F = POINT
	-0.02816007898088002	-0.9898670365256135	-0.0
	-0.14608799010100104	-0.8755887984849923	-0.0006406453038197711
	-0.2416922239626853	-0.7347062378717146	-0.0012812906076395422
	-0.3106921352517136	-0.5715000000000003	-0.0019219359114593135
	-0.3496154375328001	-0.3909290238212395	-0.0025625812152790845
	-0.35590370691586737	-0.1984798670733018	-0.003203226519098856
	-0.3279901184713203	-1.3997712914254247e-16	-0.003843871822918627
	-0.26534705341268094	0.19847986707330104	-0.004484517126738398
	-0.16850213052642715	0.3909290238212388	-0.005125162430558169
	-0.03902217474215397	0.5714999999999997	-0.005765807734377941
	0.12053439005006095	0.7347062378717144	-0.006406453038197712
	0.30669527741493163	0.8755887984849917	-0.007047098342017483
	0.515179842038239	0.9898670365256133	-0.007687743645837254
	0.7410291449685938	1.0740686655582934	-0.008328388949657026
	0.978756628468125	1.1256352616929537	-0.008969034253476796
	1.2225148222930193	1.143	-0.009609679557296568
	1.4662730161179138	1.125635261692954	-0.010250324861116338
	1.704000499617445	1.0740686655582934	-0.01089097016493611
	1.9298498025477986	0.9898670365256138	-0.011531615468755882