  TITLE = 'RIGID WAKE OF ROTOR'
  VARIABLES = 'X','Y','Z'
  ZONE I = 395	F = POINT
	0.4199577803713623	-0.06654024990042331	0.03230243911124715
	0.44795988610195187	-0.10757672363985928	0.014288105266768759
	0.4421287787113489	-0.14659354607957978	-0.0014538806619065672
	0.4347541009463435	-0.21486049578389832	0.027416348851367126
	0.4771234353880338	-0.29288291365441416	0.030585242464247465
	0.42452464583998883	-0.3335653097934168	0.044927926565857215
	0.40510929497134657	-0.37998592784683316	0.01180552208210834
	0.4157758754518687	-0.3853362183317901	-0.0020515711108360056
	0.3973227339838204	-0.37907404671532136	0.005824306407542296
	0.4758672587566731	-0.379184509357687	0.09410155764734814
	0.5218751728776934	-0.30893376747956225	0.14609273321086666
	0.4538985309542586	-0.3876035578612364	0.17453686643179248
	0.4397497503251774	-0.32971541643335417	0.24059746505089047
	0.3812820396402009	-0.37005580054678844	0.21903454362544394
	0.3988280464598675	-0.24670957977407823	0.3196953674930201
	0.3728031691165736	-0.1864870599025501	0.3806409953248732
	0.3921971595645037	-0.12679333197356046	0.45978015500308456
	0.5575787150472413	0.003975696215527967	0.4273233735746803
	0.5290189871067167	0.003619492363967692	0.45648136763041824
	0.6368623059108552	0.08421526177629785	0.4530503820318739
	0.6326930576144685	0.2712378986330831	0.2872609721808232
	0.7829834990694406	0.2734402107844395	0.4038224500707822
	0.8214561974570528	0.06467958232297019	0.5775293561110746
	1.0861800285980168	0.5053451815485948	0.1985806499613732
	1.136835044064124	0.6153234334535495	-0.010152001944904301
	1.345029531335493	0.49866324607759066	0.3116059522910355
	1.5020334042542336	0.37709312231275893	0.2906810516878382
	1.3833583360399149	0.5160709443583527	0.37191223235189486
	1.6218168890045626	0.3870790583907883	0.5155727863316519
	1.6145875642394567	0.18343301801175121	0.5847209348109008
	1.83820745104732	0.4249148089698061	0.5050686523984276
	1.7483160370809079	-0.09949518421380782	0.9705052471970109
	1.8801290109561313	-0.016365149704113166	0.9090519692804431
	1.9229461400815027	-0.07976017104662046	1.0366670677911674
	1.8485348552850633	-0.16518068298100866	1.0691946896795563
	1.8169954597349063	-0.18922690968393688	1.0229329300429404
	2.0276111649304087	-0.27131686305488595	1.258265492240741
	1.8941897202901505	-0.27626757670058416	1.2463323894960003
	1.9736286795046807	-0.30204670157125507	1.1718312136887192
	1.8837181995674843	-0.4515078875783985	1.3401997450079866
	1.8745942425914734	-0.24810139701188216	1.2101098896417024
	2.3003149635070828	-0.5823657755403671	1.1288775204712507
	2.498572272706947	-0.8732501870908075	1.4527640503476122
	2.5035757647762713	-0.8615027090800389	1.4339999066495215
	2.485168196831645	-0.7248409790000123	1.2100793673149943
	1.9616328661122857	-0.3590545790294268	1.2952350678868585
	2.437645487911264	-0.7770602243281273	1.2923339038914252
	2.37536651805909	-0.5328042997157946	1.0596397018273478
	2.537660279228547	-0.7059772484079067	1.1340473899517967
	2.157996591893889	-0.47695430358465457	1.2407203421287005
	2.1502809167645847	-0.4533079586984558	1.1711198174892834
	2.156879671785832	-0.41419999229297605	1.4684952033434706
	2.332837742623363	-0.2602452296836723	1.6286159104779871
	2.182312269396637	-0.41342806654012476	1.432654713815486
	2.4389520153862914	-0.16444759693995942	1.539320760980492
	2.318767452290626	-0.2955165417240962	1.5406483857405047
	2.335572745846841	-0.26719748353524575	1.5571012344144481
	2.39950321981746	-0.2069534167223391	1.5931198638876862
	2.7271056510122977	-0.10396865239652017	1.3998187027735554
	2.8172323681087437	-0.03641996578707603	1.4757509661378436
	3.367634688212386	0.501190531923986	0.7238741506730586
	3.428345535745042	0.5477248985756332	0.9643663388349812
	3.387918207257146	0.3557349420043018	1.050402073779578
	3.46680667788053	0.5474046729773969	0.9313162660862685
	3.33420186379178	0.4748074376265294	1.2236192558933425
	3.667777662307312	0.43847458226991454	1.0876127401186306
	3.4570612151786	0.48075550171053866	1.2151894035500292
	3.528749840093111	0.40124782435971373	1.0598489096816819
	3.9012268483139994	0.2052906672322687	1.3037582235589988
	4.098121167365313	0.26784442564280114	1.2000358376953453
	3.9286971579456056	-0.28458906487176283	1.945017197747227
	3.94249667147789	-0.5422280055838312	2.278870982305966
	3.964210022443657	-0.6065630980654375	2.318065609085672
	4.103743576968864	-0.7433004494110267	2.387874867560009
	3.86973301675057	-0.6679447080852123	2.2295777731479873
	4.082884418970559	-0.677631626077384	2.127260756730172
	3.6963803495673266	-1.4510657498295665	2.8207987480177565
	4.12675856964357	-1.0020514893889685	2.627942091721566
	3.4343578358441076	-1.4285763509734863	2.8191704911007687
	4.0918519151628665	-0.7971527414413294	2.2957448771611166
	3.869595447321294	-0.7133364213177044	2.2149700689266574
	3.708975067065821	-1.0397786567912777	2.6335557736683906
	4.211486619609029	-1.1244934131302584	2.5785789974630275
	4.876273166057738	-0.6434641175911326	2.2460544217169227
	4.158289778413424	-1.257886244750352	2.703928181482481
	4.099813221285365	-1.2752554312489954	2.968703968915975
	4.680706865266619	-0.5351868362283391	2.154594983327266
	4.223966368003245	-1.155419931426304	2.9669662929426446
	4.452483549447402	-0.6687427607066937	2.2421530320864798
	4.207323671216509	-0.321105111020223	1.9838182011030971
	4.471432556587158	-0.9421280431580797	2.8197260354030007
	4.116993937483665	-0.30174644165681247	2.0313765828177917
	4.206301632177169	-0.3524419812221786	2.030595244395463
	4.756361064186552	-0.918423728875957	3.22331167959252
	4.158340711120965	0.25131581615800463	1.4373774710591918
	4.611323798139793	0.4944773486999474	1.3304430832969039
	4.588930469153993	0.3627394185083437	1.406677649869292
	4.768753090718761	0.3433968086696966	1.3862686770081876
	4.65978127746829	0.4048634334598238	1.3458591243180384
	4.719627841517159	0.3550581635638868	1.5333101873125305
	5.253263244063968	-0.3690935454326984	2.2470495653312086
	5.409583719162403	-0.2807836188180965	2.185619903742686
	5.30702746113658	0.5709554499404561	1.2415366053510695
	5.564371687467589	-0.6635405758978177	3.1476829678438056
	5.466393303780674	-0.7557287680766175	3.192511531970279
	5.59067959834779	-0.7685774884284419	3.3509689282498285
	5.6819859257933025	-0.7510259104295222	3.059806923938844
	6.199966649461168	-0.3543887136719759	2.9166495755914092
	6.3548075429494935	-0.25753887408764253	2.7895858981439563
	6.3630425155404104	-0.3108632031410998	2.963275439419582
	6.3650449534819495	-0.5914976117089852	3.2770739934556463
	5.483723162679703	-1.1536222684721993	4.149991136643125
	4.29202392404009	-1.5768207739572697	3.1260897671434598
	5.931774717936137	-0.8277148300503341	3.68810736898378
	3.938266498729854	-1.9959426648180247	2.2396437070769695
	4.367053977169957	-1.4528732447161135	3.3549425535337782
	5.036424771634608	-1.174307114988365	3.785841829478286
	4.87138004213704	-1.2700013662064107	3.767603864249964
	4.275370623229296	-1.5698463607728952	3.342552027905087
	6.381343321017354	-0.22743702164226845	2.8610932035975987
	6.134360977942632	-0.4370394017142457	3.0118335569983525
	6.355242005101628	-0.5986068495564241	3.4231064362459875
	5.386070180746224	-1.2507181159321945	3.911507745910587
	5.393798566033757	-1.1095799325990003	4.129160146067807
	5.726277862220292	-1.1835308109632217	4.053154894147311
	6.188229500770472	-0.6901223828131499	3.3692383527589844
	5.622364584972985	-1.273937011549916	3.585784584156412
	6.187778345996515	-0.454179834281801	3.0578658319450724
	6.3248154292098375	-0.9573822269532808	3.7711144585535794
	6.260823071824914	0.25565490388139234	2.0791088965907365
	6.683952987458576	0.4035084129130094	1.3891086240716795
	6.5855115957874455	0.055873686895341404	1.9723278195004228
	5.658903757046438	0.8209238715015568	1.486438502367863
	6.510686505766493	-0.11977015910486105	2.497804045114937
	6.672498652811025	0.3210011722114473	1.56185591408277
	7.202752280433039	0.16983039884737927	2.5116136068347257
	7.1746980285026325	-0.6639277244189121	4.4430376365790964
	6.765867314538914	-0.10366593827268866	2.454959465065911
	7.668160447276224	0.052218059391395955	2.97736807176925
	7.643528039261697	-0.06775881294771026	2.92689592424989
	7.224673057567787	-0.5288122441767948	4.1010355159277
	7.503680510120919	-0.40741506544366046	4.23842976417111
	7.193330735396266	-0.28220126152436414	3.8896712631063504
	7.744556881898995	-0.7332167110579086	4.57999009410378
	8.468242664232834	-0.5070633079888225	4.232001930951581
	8.365401075476642	-0.5387628158262124	4.183311392153918
	8.363123070799032	-0.60307673087613	4.320978833221255
	8.534516445111416	-0.8709496840252215	4.502384625252467
	7.837133987167622	-1.040639616304709	4.701137073579052
	6.227245157569106	-1.3019881544977108	4.281800216112342
	7.162309783621766	-0.9732033604985875	4.584738829508571
	5.69436011285126	-1.3701038886903796	4.194309921425011
	7.179659825876849	-1.1086912122624668	4.730765907262174
	7.7830516469165	-0.10465192328386286	2.7939459365343566
	7.200378767098497	-1.198164732897531	4.862553277757404
	7.790324134768709	-1.131736572488573	4.740572330042401
	6.844848793703649	-1.3334281392572176	4.885612740550371
	8.696575639991899	-0.6168197201959358	4.482203474977951
	7.34081572729612	-0.9449246830833642	4.213489535151875
	6.944592840580578	-1.3007151995806934	4.829485569915424
	7.638035466987827	-1.3095890492560758	4.976399848699769
	7.83436761083623	-1.0085467124600134	4.684371592902228
	6.817081256941341	-1.302601418352588	4.352828846478303
	6.150652924990963	-1.633173300871906	4.440287057728202
	7.9637913802425935	-0.7969962680980303	4.506627975239949
	7.6702835215847625	-0.9282433591688437	4.6098952373568025
	7.793844566349613	-0.20464919127453896	3.295877633299022
	8.131103536680852	-0.05439495667546802	2.6793246421838854
	8.101480562136976	-0.2322113312256544	3.0496057611937095
	8.113553480734264	-0.07543222669043344	2.7550570324704533
	8.77108251135167	0.3163930633561638	2.2240851439806897
	8.979418889033761	0.3099360065193712	2.5205719630239334
	8.999012159586945	-0.39795870668713074	4.186601863935095
	8.350177486398875	-1.2383013406096461	4.868366143849744
	7.948752445845151	0.8214726108268359	1.1873040682587466
	8.806099429755836	-0.3140825132245271	3.6566277028137724
	9.010148316171671	-0.3240805473979482	3.472060923984128
	9.664894823326827	-0.24055189323306633	3.668930438911327
	10.408142018552194	-0.6057564579471548	4.548887932464923
	10.288995584291934	-0.8491802794019072	5.42003199434915
	10.737997019700806	-0.6829407537910065	5.560144655521094
	9.196187001998702	-1.0715986065219814	5.324470089431708
	8.240791935997711	-1.3918177153753268	5.515556551538767
	7.6768654070139135	-1.5643524186723468	5.167644295890164
	8.726054080578692	-1.1066678459097634	5.225018684455342
	9.978778761039026	-1.1711237495690234	5.931997813098973
	8.239656121734983	-1.5024379453488774	5.382908323018093
	7.320587824890413	-1.5182397040597442	4.910943649966043
	8.837359395909512	-1.6282537629277163	5.6950204979473025
	6.114285401249738	-1.8982746095305716	4.205831647322701
	10.073408486676055	-0.9214389432073443	5.1779035491947045
	9.63174432948861	-0.940056658457932	5.161026234536414
	10.239130030257117	-0.7110160793809048	5.044283008401542
	9.677167193108632	-0.5310315114405609	4.028829134048732
	9.772626165412195	-0.5530310134835099	4.312078301685259
	9.287486219028386	-1.3050605419216388	5.6261126942623445
	8.582219914293955	-1.7003818386964367	5.336477004739241
	10.537371930914098	-0.7753361000733506	5.617427644953785
	10.597760509619604	-0.7084323194971083	4.8726886913242105
	11.015330576984294	-0.29838410859607045	4.479383760896918
	11.14057046292471	-0.9638829484317499	6.199759576598162
	11.069698880762346	-0.6122719788952301	4.904744655353805
	11.173299222524603	-0.6195913853552236	4.828232853386215
	10.698286754656307	0.25686807340011747	2.3770266044090964
	8.733965283171857	1.7816834231576582	0.6866238585078367
	10.513787232063025	1.1567613609412513	0.8237388050291399
	11.486350633832817	-0.132257785474136	3.3569559413212633
	10.61128908182416	-0.8587793403670736	4.4022251653126565
	10.22903363187458	-1.3204181354413327	6.202661064141496
	10.567922629718877	0.6973896457535878	2.300186392136764
	11.549573352220918	-0.05702819693200065	2.776777726477047
	11.522574601278759	-0.5694503971696062	4.189118371211748
	11.282581055085704	-0.740601463865778	4.914225547387657
	10.372680625965337	-1.0990927858312862	5.053589822225066
	11.445742310298488	-0.46952125379113485	4.071341074800525
	11.314600186161316	-0.7066005599772617	4.977379436567193
	12.03096222371433	-1.3928876876260623	6.030440672256844
	12.522227287188217	-1.2014077493923154	7.091545158804443
	13.088346699365875	-0.572035484077805	6.097421552035605
	12.544922691513433	-1.0397708684476918	6.402418982701944
	8.910125736885067	-1.8407429107344861	5.811121349249476
	12.414209812002266	-1.0924344627003337	7.000558778202954
	9.067073287824433	-1.485178302053943	5.697852379060959
	8.496032326491703	-2.14204851488678	5.79035458647653
	8.87810893078933	-1.9262216340161715	5.934924822318907
	8.192502678856236	-1.7988213297647875	5.214979044499183
	11.075091107776274	-1.1777207991735517	6.190613853449803
	11.265824791207717	-1.1939745709922756	5.959979486947338
	11.558849329548885	-0.839604097479509	5.780014832363694
	8.86979649914419	-2.4358180159841454	3.8071564991293503
	12.053426532551455	-0.7810707763750472	4.852231165823492
	12.237169287545983	-1.3564777549418026	6.284412730291781
	12.947416327563346	-0.7016442533028646	6.264255929464411
	11.139311379530135	-1.1469051904862768	6.107870451076147
	9.979958854440584	-1.4198576021018159	5.906037763506552
	11.661972369565234	-1.5500421426239566	6.377527507306846
	11.466404364454876	-1.268561296751018	6.614966536542259
	11.809774319949256	-1.0287984237954242	6.684213529287398
	11.914878389835456	-1.6420404886786264	6.086064012698531
	10.373860394502502	1.8696518061519272	0.31577894087101777
	10.03702251223662	1.8468364293071913	0.5051776359076956
	12.310470871128746	1.8538227232537468	0.6663487518043749
	11.83239449220501	1.8989659854305585	0.43565086850138796
	10.773092259295078	1.8720267298477735	0.3425661515357768
	10.730595271750055	1.7659279051592736	0.2605234445186173
	12.766611478866277	2.0932484031897918	0.09097319613128188
	9.656954729331382	1.8105471754454827	0.36761581986075287
	13.213524977885164	1.0883688803334108	1.6143151550252142
	11.144119309447996	1.8154872336629522	0.6284258731760398
	13.467538615027042	-0.45497481736433837	5.6450258449489725
	12.935391660115197	-0.8371853299403127	5.739486166605478
	13.915188064783376	0.23623894775597898	3.5246618838253796
	13.624845203425135	-0.4342030548285031	5.782350145119186
	13.926927661478539	-0.47310110026878255	4.638547719683389
	13.026049737004318	-0.7872894831215875	6.381361336847586
	14.784710243724946	-0.2655997934345248	5.261651537273657
	14.606672837880843	-0.26357881463597155	4.559615144577368
	14.66180280941018	-0.03016626790573527	3.735535569910634
	12.289755768397546	-1.2782062059756223	7.209195174402059
	12.209071330352238	-1.1488856408092953	6.726768838342479
	12.32137078133976	-1.062513651752972	6.774410403898936
	14.40133295610575	-0.5527913660309497	6.411073386907057
	9.438720530967114	-2.650412404586115	3.8644651795714617
	14.524808675264525	0.09089319702518689	4.984369054512305
	13.268020129407654	-1.16587493090436	7.132993667075377
	12.841011635709645	-1.3204218394354839	7.2001450159504845
	14.820260989432878	-0.0522206628627827	4.970309927576922
	14.420337992774119	-0.4341071127216776	4.994614930423999
	14.741080185767773	0.03929573127875486	4.802648779557413
	14.806035309875002	-0.04575536277251816	4.5163814123991015
	13.848002840675127	0.6801802365521968	2.760058954000518
	12.15598085515675	-1.2459378245956283	6.8489372777902355
	13.557598600952897	0.9100293387194084	2.4253682743189753
	13.877980014400848	0.7659252129902668	2.556094408542357
	10.640642210281305	-2.073165594053858	4.726380802438383
	13.07755776188507	1.3986290753634467	0.6278785427304148
	12.891728702512031	1.8429541599932018	0.2573280738152744
	14.80542029352954	0.0331538450879697	3.776983864559829
	14.858662765169242	0.789515773449221	2.31725774067653
	14.364724237804873	1.4615464974171033	1.406837215895148
	10.325286020987093	2.156584447285644	0.6693222391559516
	15.05848981071774	2.0619772106134087	1.3275349194589485
	14.69063112658337	1.0528647229822548	2.1872709922813076
	15.417459520434164	1.828171426634769	1.5443677728494454
	15.2077970061642	2.9390623337410258	-0.34363654477905886
	15.39204313100319	0.6941965946896964	3.7374542641607142
	15.463049524051181	0.9983338068337588	3.3824905272673735
	16.531345052548925	0.4233520492712881	4.17562617522915
	13.551655655860651	-0.9875337998863797	7.413143568340855
	12.14772119309351	-1.4059231289878806	6.976334174741043
	12.809355685075746	-1.6859994716610651	6.445254023147578
	15.547027576565672	0.7315779015336245	3.7046672899192816
	15.629297870795973	-1.1704651011771048	6.913552799969893
	12.662461403170166	-1.7620044976849976	6.677302073950761
	10.366441826046598	-2.065820592371988	5.780458420644836
	10.887818016808405	-1.6827430188825194	6.138347579388371
	10.548422044665557	-1.8080603758894904	6.055693838578091
	15.326197784945263	-1.025190234232968	6.767279621560667
	15.53527310161285	-0.6272690673466168	6.492169808321007
	11.705872265154673	-1.7944126277491572	5.974806452627207
	10.381781215043503	-1.8594776943355231	5.943933111623423
	16.19202922136909	-0.8939785646514309	6.581991905560744
	12.561965787938608	-1.6328524583074644	6.886495675509359
	12.285248827539556	-1.445429885861903	6.892809743418955
	12.498050942590591	-1.2304458153875664	7.242921529046503
	13.652537114282074	-1.4712662783952684	7.217432619124779
	14.418282558318094	-1.0957541989915018	7.168229431537433
	12.215477696439162	-1.3606457992362682	7.286727803623464
	11.485280539000748	-1.422530292136169	6.4964597224955805
	15.053486634428088	-1.2167703543570705	7.087949934402005
	15.72193560924079	1.8792700890764393	1.3080766258428906
	11.170612201168979	-2.005050865597375	5.217463982677376
	16.053425179389983	1.0701826863691308	2.898631459007454
	14.359392362062826	3.0287406104579304	-0.255352826021024
	16.502613088610644	1.3665093474096355	2.077628103099513
	16.548656334355336	0.5638221966739757	3.6716472517599046
	16.567312886426595	0.7592675535402518	3.468094753243306
	16.13758244023069	1.4804374404723935	1.6703857740935617
	16.83075177868999	0.7834037291708481	3.245762789990723
	18.132189020884788	-0.7971733871132757	6.001700828606548
	16.204378189470575	-1.1849506269149523	6.826264003661366
	17.1542404946266	0.9732430995535387	3.0445126061161147
	14.020922741796072	-1.2484925057473262	7.274806881635047
	14.610942016693555	-1.0547176445746334	7.0249333455680025
	13.134334040729346	-1.8672928325340843	6.835312580689682
	17.10599776559179	1.0088248197246314	3.4652189207902944
	17.34950533388473	-1.1709765166206043	6.657269956333636
	18.321731556326572	-0.9237993357038013	5.37007083739876
	18.342802192261406	-0.7252739556166431	5.759538887227184
	11.609159053144548	-2.0014358783429924	5.669118605435872
	12.595764296492067	-1.536655111563592	6.985822620351924
	14.718319071579954	-1.2335170011391898	7.109904558653985
	11.469637090212512	-2.768573869748741	3.5299759871989678
	11.895633527943247	-1.9341029172551853	5.673208996425802
	15.217230040564305	-0.2437617542962644	5.8705951367732885
	13.901318893167764	-1.296453066396855	7.120755139001401
	17.343667346545953	-1.0158775383010092	6.470123563061789
	10.852553314778243	-1.6785752647337813	6.131879206155211
	14.13470320702512	-1.1951104073019538	7.1329858158353145
	12.034100825239417	-1.3686117194506855	7.194452345000822
	15.570208020899683	-1.2643715015432646	6.888277460660668
	16.03521308615933	-0.8754274146910925	6.586605980576279
	15.4347126070754	-1.3243217976701847	6.971547895862443
	12.309529595817674	-1.42300184567067	6.917798453923718
	17.090009075673095	-1.0034312013628974	6.544261045540481
	15.632220556200298	-1.0739605754847235	6.014102942351318
	15.438068490315008	-1.540524013257011	6.456219919903621
	17.79269975243466	1.007337512544258	1.8423167404449279
	16.036736102532856	2.58801269327713	-0.2814824416290642
	14.853276690520367	3.0654771083865975	-0.31410757269858086
	18.903146625265038	0.5081598976536881	3.4935657002371783
	18.334921522849637	1.9275942707833473	0.22850551088363424
	18.90505197523117	0.1973033446174802	3.708047973823956
	18.078515836514914	-0.9033028447228367	5.53340970518641
	19.103919697598723	1.1309549687572347	1.405787928175173
	18.71916189118656	0.34992680032277185	3.0066897032070425
	16.788493639104445	2.799196766733295	-0.3779659694317564
	19.881301576646607	0.2708458061413391	3.3666852486056023
	18.539870452412554	-0.4480239388463894	4.420485596722714
	18.767659499495174	1.2023410329690074	1.818287179458906
	19.736400231189148	-0.04119428503441367	3.8940516327270056
	19.744288360477146	-0.11375281699455975	4.119060852623991
	18.865428697757203	0.4391458899158185	3.529846367140477
	19.799997301509148	-0.2990078079430823	4.321381024374168
	19.753942747571738	-0.5714064920149192	4.80153158037564
	17.140839002768796	-1.3204212558350121	6.831693958719317
	19.185195339906162	-0.4928674807736433	5.0655289837389885
	19.64332567069998	-0.9508723747926755	5.325623878264848
	18.69330888320588	-0.31556196667120745	4.651213799880224
	14.809344119972149	-1.2881220675688017	6.775780970034096
	18.900530547128614	-0.6725895304487732	4.844818124019021
	15.822688862451539	-1.3519051522432153	6.767479544120313
	19.821680967917008	-0.04122510743067106	3.746018879489933
	18.323072588105706	-0.9904647708365782	5.105523381794988
	19.469914602384137	-0.5955779462865913	4.925825123464124
	13.740192121556028	-1.6170389678231012	5.900016297037475
	18.82695471164575	0.7923622401559937	2.5360681937765652
	19.904383397564022	-0.1157431950063349	4.0157647130546605
	15.105581596297286	-1.3842873315283226	6.266915912623521
	17.813159113609196	-1.2123639515892957	5.448053776706629
	18.41432977573312	1.4030539694429167	1.603727925470824
	17.863099322150763	-0.8102760747589378	5.1366286451786785
	18.493561574679262	1.6910620816048347	0.7859811176889414
	15.817599833090418	2.489980925184843	-0.10115521656048172
	16.703422834878843	2.8671537055919063	-0.4842435321440742
	14.812089228599863	4.020247283251085	0.8877300856151144
	15.734441967838489	2.863017721697895	-0.27446929950488685
	16.792954541150518	2.158002478890355	0.11296992174582426
	19.027269519603013	1.5002553892934911	1.0048690910677172
	16.93389099080144	2.9562821680580535	-0.2911693338349711
	17.04673549427784	2.6953111033560826	-0.18333436262268935
	17.859981461544887	2.2209547766834916	-0.08535371678126569
	16.89460635740665	2.8535542531322817	-0.36364088056411004
	16.45380991746805	2.880641887472895	-0.4546107483093728
	18.356781409614094	1.7959889821826673	0.42137079399347455
  VARIABLES = 'X','Y','Z'
  ZONE I = 395	F = POINT
	0.6720680273961461	-0.10653906947920637	0.021175985922512176
	0.6862455358091837	-0.19132308522013422	0.01239490490729192
	0.6743445888104621	-0.2981155967952587	0.010709250292731745
	0.6689883724993423	-0.42435536498628307	0.007514140790964472
	0.6502454204957884	-0.5018482398984482	0.0016758194456655351
	0.6067732470597641	-0.570939347334427	0.009461974067752463
	0.5449819155941342	-0.6157505007497245	0.01440245308625025
	0.48282902050016296	-0.6561835201804134	0.049132383047041
	0.4249948040330898	-0.6737324255388604	0.06806397257418423
	0.36493556686944906	-0.6778505286142389	0.09384644814081027
	0.29737409691074035	-0.6276207604135561	0.12849723705595845
	0.25915607905517046	-0.6092958312495139	0.15269989196827694
	0.2181631871077952	-0.5375688104513073	0.179213581100655
	0.24460422545402077	-0.4834536478317282	0.22258881211954606
	0.20303120029278227	-0.410252977659775	0.23914799258896718
	0.17922402400792672	-0.30723021996693617	0.2561469951281698
	0.20641670811515422	-0.19387857418412818	0.3410581706555771
	0.34122940817865144	-0.07097039262988834	0.3132168842175781
	0.3237398762071041	0.02891823050427754	0.3592942267127547
	0.3295037392467277	0.10960526205986196	0.3459971066776491
	0.4664634538189417	0.2017294938094447	0.31168476180393967
	0.5491541092263907	0.28302136411446127	0.272376158696379
	0.6805513025358304	0.3858946514232927	0.35213474399991956
	0.8627525470386891	0.565800860727941	0.16499105656031549
	1.0728787637178097	0.6511094974365635	0.17976319513810793
	1.192363805076431	0.769547139281576	0.14812204406232288
	1.3758717625392656	0.7228518172655982	0.13760570628438976
	1.4888774312551534	0.7146253633989834	0.3263760939598431
	1.8873752596223334	0.8083477720878295	0.2860192723132786
	1.8665830108301413	0.7867003060274927	0.2384585496594312
	2.005670073159829	0.6050789626621814	0.4287385979130773
	2.1317216651336857	0.5330605186024221	0.41960122681538203
	2.305634329964521	0.5390545546103749	0.4239453416829121
	2.1333427569500527	-0.09621248267877491	1.1977606360553599
	2.031156271130027	-0.07987595739194478	1.1199943557751109
	2.0691476873579773	-0.2122666073559928	1.075887934827393
	2.081143811569911	-0.22809484826896934	1.1126574030698382
	2.064457231444207	-0.3128824583176662	1.2192278319849221
	2.0841647257890474	-0.3450458811616673	1.0984278361794844
	2.3369274515796765	-0.518333816944084	1.0165853855969815
	2.4121919234908753	-0.5974044854644395	1.073197687687404
	2.3378910027499336	-0.7716573252401477	1.307466595702896
	2.3465429447982857	-0.7981264142197382	1.3383196901969683
	2.0790471623079743	-1.0083993091077679	1.482168428731239
	2.1140970324995636	-1.0289192993855696	1.5355433129699174
	2.1956251223308456	-0.9849236268739271	1.5532457459395574
	2.0597053721939833	-1.0389514018416361	1.5980148740483648
	2.0254934345211795	-1.0217921721278562	1.5355877387072479
	2.089206648527605	-0.9785692112932097	1.5710437535376067
	2.0037313543511073	-0.7167760653609393	1.3908761968568006
	1.80700346286318	-0.7131074547794403	1.5392012226352934
	2.0148382716275757	-0.5449358474147895	1.520106562152684
	1.8231603475642624	-0.6542374323128626	1.4846615177780924
	2.070039627692706	-0.3278998075304571	1.4099770626777053
	2.0243635176280232	-0.2927225086302345	1.2592844365940046
	1.8155803562947446	-0.2355215504292625	1.2319537025051883
	2.1055943118279408	-0.1773759020787959	1.3718340123101556
	2.384176027453386	0.08405599807132459	1.0896536240627788
	2.5955060568001764	0.06298946860801512	1.1101708863347275
	2.616745964813436	0.593993391580169	0.6264758457503975
	2.741783676440089	-0.05692861912243113	1.4618575505550853
	3.002547841062339	0.7333070249745298	0.8337683860951631
	3.3872735934118214	0.6432751362984546	0.743916907946383
	3.3528360678293008	0.6263964950370168	0.7684400423882153
	3.2991299098365925	0.913783780232794	0.8749708230890861
	3.6225491009551365	0.7475785268390223	0.9449126585622916
	3.572119695544359	0.750739030939368	0.9391157770268644
	3.9540224260763	0.5486758438810737	1.0117754987653456
	4.05738715513136	0.4416500338697067	1.0614187749260648
	4.046874880674079	-0.11730495230882708	1.7271917681568607
	3.8695954413542784	-0.39995996791673727	1.964447759022625
	3.9320714569619897	-0.4759962142399089	2.083654497884485
	3.884624997097481	-0.014141533315652786	1.7158839276841826
	3.9366877104697977	-0.2606463191125123	1.8577648312661763
	4.258970635799633	-0.39131803258028586	2.0345299499464473
	4.478295025821126	-0.5566453642783028	2.128288959426658
	4.118296096385605	-1.059647560841435	2.542255554661118
	3.6791784144431268	-1.2758900192997684	2.7616428223315816
	4.137022585873072	-1.1200724083326425	2.082200476679902
	4.131727709805169	-1.200341133073813	2.0862262412103454
	3.830820567382958	-1.4133958216305136	2.551245040129448
	3.5599104472319762	-1.4996663333064266	2.8260320324622703
	3.5102986485245298	-1.4402775948922404	2.9056333646824717
	3.4569228446087803	-1.593899120490246	2.3872027265492703
	3.6958010469179827	-1.4500125462749454	2.9620590862514695
	3.771949986708601	-1.4579523392779334	2.9337231406883433
	3.4986635055973285	-1.4356939353403209	2.882778570927185
	3.364956549704463	-1.5229054495491652	2.7064151283852502
	4.16368721199854	-1.1737876668612217	2.879297231496659
	4.371155640087313	-0.5112767849880988	2.064292662571773
	4.380574398587886	-0.3899783573666144	2.0365249417695916
	3.8744095874504905	0.01781126083932616	1.7710116464088215
	4.08413805877253	-0.013240490286376357	1.6869596485964433
	4.216424620226387	0.14738972657132873	1.5483291744337135
	4.34094778254846	0.11917740584340873	1.7185817394752962
	4.343513179090609	0.7291114025661946	0.9603610947017941
	4.338345848827338	0.8519584423526554	0.8797354093583544
	4.444465654960777	1.1470603773939372	0.7281496038712958
	4.6975138000771555	0.35104663165952865	1.2866656449224834
	4.924829827897948	0.2423748724862526	1.388338335010866
	4.869392661885645	0.7722798842619929	1.2003199233188817
	5.031870311241367	0.7840746463597453	1.090518529401791
	5.432932827470853	-0.22839777029785047	2.103695993616131
	5.2391253904940385	0.7817477736702162	1.030698817857653
	5.883007113270014	-0.6242146750283899	3.009629980708491
	5.5851623760943525	-0.25726253657983206	2.3318020271339033
	5.804884725906037	-0.08250167389856915	2.160769222946503
	5.845233568337331	-0.0883210534222973	2.111564088067
	6.029634382394245	0.3486739487466609	1.719608085633887
	5.857958529361458	-0.6647336659396869	2.8346888808869526
	4.774172223969669	-1.3663602593651167	3.7486858861909647
	5.470650314217169	-1.1352724814612238	3.8598315696980956
	4.91745373941014	-1.2926618459776997	3.593813933159292
	4.799922759746651	-1.2282197604815281	3.845576080950618
	3.880596744160548	-1.641532190985203	2.6545034095889464
	4.537906774397835	-1.5256084909116787	3.42378022994136
	3.848296313502571	-1.9494755047638812	2.291353817397326
	4.984012575727991	-1.0780152666359577	3.335667607743082
	4.083599963772939	-1.7365220894851197	2.8876849200396237
	3.999742918903598	-1.5610326157723153	2.657960383460013